# vtk DataFile Version 3.0
vtk output
ASCII
DATASET UNSTRUCTURED_GRID
POINTS 15 double
-2 -2 -2 -2 -2 -1 -2 -2 0 
-2 -2 1 -2 -2 2 -2 -1 2 
-2 0 2 -2 1 2 -2 2 2 
-1 2 2 0 2 2 1 2 2 
2 2 2 0 0 0 0 0 0 

CELL_TYPES 0

POINT_DATA 15
VECTORS velocity double
-2 0 0 -1 0 0 0 0 0 
1 0 0 2 0 0 2 0 0 
2 0 0 2 0 0 2 0 0 
2 0 0 2 0 0 2 0 0 
2 0 0 0 0 0 0 0 0 

